/*--------------------------------*- C++ -*----------------------------------*\
| =========                 |                                                 |
| \\      /  F ield         | OpenFOAM: The Open Source CFD Toolbox           |
|  \\    /   O peration     | Version:  2206                                  |
|   \\  /    A nd           | Website:  www.openfoam.com                      |
|    \\/     M anipulation  |                                                 |
\*---------------------------------------------------------------------------*/
FoamFile
{
    version     2.0;
    format      ascii;
    arch        "LSB;label=32;scalar=64";
    class       volScalarField;
    location    "0/fluid";
    object      p_rgh;
}
// * * * * * * * * * * * * * * * * * * * * * * * * * * * * * * * * * * * * * //

dimensions      [ 1 -1 -2 0 0 0 0 ];

internalField   uniform 100000;

boundaryField
{
    fluidInlet
    {
        type            zeroGradient;
        value           $internalField;
    }
    fluidOutlet
    {
        type            fixedValue;
        value           $internalField;
    }
    fluidWalls
    {
        type            zeroGradient;
        value           $internalField;
    }
    cyclic
    {
        type            cyclic;
    }
    cyclicAMI
    {
        type            cyclicAMI;
    }
    cyclicACMI
    {
        type            cyclicACMI;
        value           uniform 3000000;
    }
    cyclicSlip
    {
        type            cyclicSlip;
    }
    empty
    {
        type            empty;
    }
    nonuniformTransformCyclic
    {
        type            nonuniformTransformCyclic;
    }
    processor
    {
        type            processor;
        value           uniform 3000000;
    }
    processorCyclic
    {
        type            processorCyclic;
        value           uniform 3000000;
    }
    symmetryPlane
    {
        type            symmetryPlane;
    }
    symmetry
    {
        type            symmetry;
    }
    wedge
    {
        type            wedge;
    }
    overset
    {
        type            overset;
    }
}


// ************************************************************************* //
